 Q-Chem 6.0, Q-Chem, Inc., Pleasanton, CA (2022)
 Q-Chem 6.0.0 for Intel X86 EM64T Linux

User input:
--------------------------------------------------------------
$molecule
0 1
C   -0.1092921    1.3607795   -0.1145082
F    1.2722329    1.3590327   -0.1165498
H   -0.4811343    0.6814966   -0.9089215
Cl   -0.7002842    3.0096008   -0.4199978
Cl   -0.7002859    0.8029367    1.4668662
$end

$rem
BASIS  =  6-31G*
GUI  =  2
JOB_TYPE  =  Optimization
METHOD  =  wB97XD
SCF_CONVERGENCE  =  8
$end

--------------------------------------------------------------

   13   -1058.8216760962      2.40e-09  Convergence criterion met
 Total energy in the final basis set =    -1058.8216760962
   11   -1058.8232535107      2.82e-09  Convergence criterion met
 Total energy in the final basis set =    -1058.8232535107
   10   -1058.8234853121      4.50e-09  Convergence criterion met
 Total energy in the final basis set =    -1058.8234853121
    9   -1058.8234949275      2.77e-09  Convergence criterion met
 Total energy in the final basis set =    -1058.8234949275
    8   -1058.8234986750      9.07e-09  Convergence criterion met
 Total energy in the final basis set =    -1058.8234986750
    8   -1058.8234988609      4.62e-09  Convergence criterion met
 Total energy in the final basis set =    -1058.8234988609
 Final energy is -1058.823498860920
	**  OPTIMIZATION CONVERGED  **
 Total job time:  39.46s(wall), 39.49s(cpu)
        *  Thank you very much for using Q-Chem.  Have a nice day.  *
 Q-Chem 6.0, Q-Chem, Inc., Pleasanton, CA (2022)
 Q-Chem 6.0.0 for Intel X86 EM64T Linux

User input:
--------------------------------------------------------------

$molecule
read
$end

$rem
BASIS  =  6-31G*
GUI  =  2
JOB_TYPE  =  Frequency
METHOD  =  wB97XD
SCF_CONVERGENCE  =  8
$end

--------------------------------------------------------------

             Standard Nuclear Orientation (Angstroms)
    I     Atom           X                Y                Z
 ----------------------------------------------------------------
    1      C       0.4010037800    -0.3837199110     0.0000000000
    2      F      -0.1927640257    -1.5836572188     0.0000000000
    3      H       1.4830357562    -0.5013592381     0.0000000000
    4      Cl     -0.0633583002     0.5016645198     1.4692624549
    5      Cl     -0.0633583002     0.5016645198    -1.4692624549
 ----------------------------------------------------------------

   13   -1058.8234981957      1.96e-09  Convergence criterion met
 Total energy in the final basis set =    -1058.8234981957

             Orbital Energies (a.u.) and Symmetries
 --------------------------------------------------------------

 Alpha MOs, Restricted
 -- Occupied --
-101.73 -101.73  -24.87  -10.51   -9.61   -9.61   -7.36   -7.36
  1 A"    1 A'    2 A'    3 A'    2 A"    4 A'    5 A'    3 A"
 -7.348  -7.348  -7.348  -7.348  -1.369  -1.014  -0.946  -0.778
  4 A"    6 A'    5 A"    7 A'    8 A'    9 A'    6 A"   10 A'
 -0.661  -0.619  -0.613  -0.500  -0.491  -0.441  -0.419  -0.417
 11 A'   12 A'    7 A"   13 A'    8 A"   14 A'    9 A"   15 A'
 -0.404
 10 A"

 Beta MOs, Restricted
 -- Occupied --
-101.73 -101.73  -24.87  -10.51   -9.61   -9.61   -7.36   -7.36
  1 A"    1 A'    2 A'    3 A'    2 A"    4 A'    5 A'    3 A"
 -7.348  -7.348  -7.348  -7.348  -1.369  -1.014  -0.946  -0.778
  4 A"    6 A'    5 A"    7 A'    8 A'    9 A'    6 A"   10 A'
 -0.661  -0.619  -0.613  -0.500  -0.491  -0.441  -0.419  -0.417
 11 A'   12 A'    7 A"   13 A'    8 A"   14 A'    9 A"   15 A'
 -0.404
 10 A"

          Ground-State Mulliken Net Atomic Charges

     Atom                 Charge (a.u.)
  ----------------------------------------
      1 C                    -0.032521
      2 F                    -0.227769
      3 H                     0.249608
      4 Cl                    0.005341
      5 Cl                    0.005341
  ----------------------------------------
  Sum of atomic charges =     0.000000

                    Cartesian Multipole Moments
 -----------------------------------------------------------------
    Charge (ESU x 10^10)
                 0.0000
    Dipole Moment (Debye)
         X       1.4120      Y      -0.2061      Z      -0.0000
       Tot       1.4270
    Quadrupole Moments (Debye-Ang)
        XX     -33.9513     XY      -1.1028     YY     -36.6947
        XZ      -0.0000     YZ      -0.0000     ZZ     -36.5110

 Frequency:       282.94                 370.96                 464.84
 Force Cnst:      1.0153                 1.6141                 2.2341
 Red. Mass:      21.5256                19.9083                17.5481
 IR Intens:        0.317                  0.025                  2.351
 Frequency:       753.26                 814.44                1167.20
 Force Cnst:      2.1133                 3.0086                 7.0930
 Red. Mass:       6.3215                 7.6983                 8.8367
 IR Intens:       49.555                265.170                193.379
 Frequency:      1290.98                1380.91                3188.12
 Force Cnst:      1.0839                 1.2912                 6.5229
 Red. Mass:       1.1038                 1.1492                 1.0892
 IR Intens:       71.402                 26.592                  7.751

 STANDARD THERMODYNAMIC QUANTITIES AT   298.15 K  AND     1.00 ATM

   This Molecule has  0 Imaginary Frequencies
   Zero point vibrational energy:       13.886 kcal/mol

   Atom    1 Element C  Has Mass   12.00000
   Atom    2 Element F  Has Mass   18.99840
   Atom    3 Element H  Has Mass    1.00783
   Atom    4 Element Cl Has Mass   34.96885
   Atom    5 Element Cl Has Mass   34.96885
   Molecular Mass:   101.943930 amu
   Principal axes and moments of inertia in amu*Bohr^2:
                             1           2           3
    Eigenvalues --      258.43866   557.31107   779.42320
          X              -0.00000     0.01574     0.99988
          Y              -0.00000     0.99988    -0.01574
          Z               1.00000     0.00000     0.00000
   Rotational Symmetry Number is   1
   The Molecule is an Asymmetric Top
   Translational Enthalpy:        0.889 kcal/mol
   Rotational Enthalpy:           0.889 kcal/mol
   Vibrational Enthalpy:         14.663 kcal/mol
   gas constant (RT):             0.592 kcal/mol
   Translational Entropy:        39.775  cal/mol.K
   Rotational Entropy:           26.220  cal/mol.K
   Vibrational Entropy:           3.884  cal/mol.K

   Total Enthalpy:               17.033 kcal/mol
   Total Entropy:                69.879  cal/mol.K
 Total job time:  47.42s(wall), 47.46s(cpu)
        *  Thank you very much for using Q-Chem.  Have a nice day.  *
