 Q-Chem 5.2, Q-Chem, Inc., Pleasanton, CA (2019)
 Q-Chem 5.2.1 for Intel X86 EM64T Linux

User input:
--------------------------------------------------------------
$molecule
0 1
O    0.9683553    0.0024913    0.0948283
C    2.3883553    0.0024913    0.0948283
C    2.8950165    1.0484797    1.0744214
H    0.6450255   -0.6650145   -0.5303068
H    2.7450230    0.2315266   -0.8876334
H    2.7450243   -0.9628631    0.3877075
H    2.5383445    2.0138314    0.7815372
H    3.9650165    1.0484851    1.0744232
H    2.5383519    0.8194438    2.0568841
$end

$rem
BASIS  =  6-31G*
GUI  =  2
JOB_TYPE  =  Optimization
METHOD  =  wB97XD
SCF_CONVERGENCE  =  8
$end

--------------------------------------------------------------

   12    -154.9795869021      2.90e-09  Convergence criterion met
 Total energy in the final basis set =     -154.9795869021
   10    -154.9823965724      7.89e-09  Convergence criterion met
 Total energy in the final basis set =     -154.9823965724
    9    -154.9824668117      5.08e-09  Convergence criterion met
 Total energy in the final basis set =     -154.9824668117
    8    -154.9824747094      7.15e-09  Convergence criterion met
 Total energy in the final basis set =     -154.9824747094
 Final energy is   -154.982474709443
 **  OPTIMIZATION CONVERGED  **
 Total job time:  44.65s(wall), 44.65s(cpu)
        *  Thank you very much for using Q-Chem.  Have a nice day.  *
 Q-Chem 5.2, Q-Chem, Inc., Pleasanton, CA (2019)
 Q-Chem 5.2.1 for Intel X86 EM64T Linux

User input:
--------------------------------------------------------------

$molecule
read
$end

$rem
BASIS  =  6-31G*
GUI  =  2
JOB_TYPE  =  Frequency
METHOD  =  wB97XD
SCF_CONVERGENCE  =  8
$end

--------------------------------------------------------------

             Standard Nuclear Orientation (Angstroms)
    I     Atom           X                Y                Z
 ----------------------------------------------------------------
    1      O       1.1444220174    -0.3981484336     0.0000000000
    2      C       0.0893851719     0.5464000038     0.0000000000
    3      C      -1.2190926157    -0.2205310634     0.0000000000
    4      H       1.9778357548     0.0855880531     0.0000000000
    5      H       0.1409769431     1.1960126219    -0.8880339871
    6      H       0.1409769431     1.1960126219     0.8880339871
    7      H      -1.2830398541    -0.8575087610    -0.8870893422
    8      H      -2.0708407089     0.4673768185     0.0000000000
    9      H      -1.2830398541    -0.8575087610     0.8870893422
 ----------------------------------------------------------------

   12    -154.9824809468      2.66e-09  Convergence criterion met
 Total energy in the final basis set =     -154.9824809468

             Orbital Energies (a.u.) and Symmetries
 --------------------------------------------------------------

 Alpha MOs, Restricted
 -- Occupied --
-19.259 -10.337 -10.280  -1.113  -0.842  -0.699  -0.601  -0.548
  1 A'    2 A'    3 A'    4 A'    5 A'    6 A'    7 A'    1 A"
 -0.481  -0.461  -0.443  -0.407  -0.345
  8 A'    9 A'    2 A"   10 A'    3 A"

 Beta MOs, Restricted
 -- Occupied --
-19.259 -10.337 -10.280  -1.113  -0.842  -0.699  -0.601  -0.548
  1 A'    2 A'    3 A'    4 A'    5 A'    6 A'    7 A'    1 A"
 -0.481  -0.461  -0.443  -0.407  -0.345
  8 A'    9 A'    2 A"   10 A'    3 A"

          Ground-State Mulliken Net Atomic Charges

     Atom                 Charge (a.u.)
  ----------------------------------------
      1 O                    -0.633749
      2 C                    -0.060867
      3 C                    -0.501615
      4 H                     0.406915
      5 H                     0.136874
      6 H                     0.136874
      7 H                     0.177962
      8 H                     0.159644
      9 H                     0.177962
  ----------------------------------------
  Sum of atomic charges =     0.000000

                    Cartesian Multipole Moments
 -----------------------------------------------------------------
    Charge (ESU x 10^10)
                -0.0000
    Dipole Moment (Debye)
         X       0.2741      Y       1.5905      Z       0.0000
       Tot       1.6139
    Quadrupole Moments (Debye-Ang)
        XX     -16.4673     XY       1.9518     YY     -20.3007
        XZ      -0.0000     YZ       0.0000     ZZ     -19.8106

 Frequency:       276.32                 324.30                 424.09
 Force Cnst:      0.0517                 0.0664                 0.2800
 Red. Mass:       1.1501                 1.0714                 2.6421
 IR Intens:       26.210                113.841                 11.916
 Frequency:       830.66                 928.77                1063.53
 Force Cnst:      0.4392                 1.0665                 1.3190
 Red. Mass:       1.0803                 2.0985                 1.9793
 IR Intens:        0.014                  6.739                 48.098
 Frequency:      1154.79                1207.16                1312.05
 Force Cnst:      1.9833                 1.3329                 1.2673
 Red. Mass:       2.5243                 1.5525                 1.2495
 IR Intens:       31.276                  5.545                 95.719
 Frequency:      1328.42                1428.92                1498.72
 Force Cnst:      1.1367                 1.4854                 1.9700
 Red. Mass:       1.0932                 1.2347                 1.4886
 IR Intens:        0.005                  2.290                 14.137
 Frequency:      1522.99                1538.82                1570.98
 Force Cnst:      1.4214                 1.4544                 1.5905
 Red. Mass:       1.0401                 1.0424                 1.0938
 IR Intens:        5.465                  4.047                  3.620
 Frequency:      3005.47                3037.55                3074.49
 Force Cnst:      5.6176                 6.0251                 5.7679
 Red. Mass:       1.0555                 1.1083                 1.0357
 IR Intens:       73.252                 76.072                 15.425
 Frequency:      3155.27                3163.66                3860.90
 Force Cnst:      6.4674                 6.5095                 9.3659
 Red. Mass:       1.1026                 1.1039                 1.0664
 IR Intens:       28.959                 30.542                 18.706

 STANDARD THERMODYNAMIC QUANTITIES AT   298.15 K  AND     1.00 ATM

   This Molecule has  0 Imaginary Frequencies
   Zero point vibrational energy:       51.047 kcal/mol

   Atom    1 Element O  Has Mass   15.99491
   Atom    2 Element C  Has Mass   12.00000
   Atom    3 Element C  Has Mass   12.00000
   Atom    4 Element H  Has Mass    1.00783
   Atom    5 Element H  Has Mass    1.00783
   Atom    6 Element H  Has Mass    1.00783
   Atom    7 Element H  Has Mass    1.00783
   Atom    8 Element H  Has Mass    1.00783
   Atom    9 Element H  Has Mass    1.00783
   Molecular Mass:    46.041890 amu
   Principal axes and moments of inertia in amu*Bohr^2:
                             1           2           3
    Eigenvalues --       51.30865   191.50632   220.13344
          X               0.99910     0.04234     0.00000
          Y              -0.04234     0.99910     0.00000
          Z               0.00000     0.00000     1.00000
   Rotational Symmetry Number is   1
   The Molecule is an Asymmetric Top
   Translational Enthalpy:        0.889 kcal/mol
   Rotational Enthalpy:           0.889 kcal/mol
   Vibrational Enthalpy:         51.898 kcal/mol
   gas constant (RT):             0.592 kcal/mol
   Translational Entropy:        37.406  cal/mol.K
   Rotational Entropy:           22.296  cal/mol.K
   Vibrational Entropy:           4.301  cal/mol.K

   Total Enthalpy:               54.268 kcal/mol
   Total Entropy:                64.003  cal/mol.K

 Total job time:  66.22s(wall), 70.71s(cpu)
        *  Thank you very much for using Q-Chem.  Have a nice day.  *
