 Q-Chem 6.0, Q-Chem, Inc., Pleasanton, CA (2022)
 Q-Chem 6.0.0 for Intel X86 EM64T Linux

User input:
--------------------------------------------------------------
$molecule
0 1
C   -1.2452027    2.3469251   -0.0000002
H   -0.1358020    2.3469266   -0.0000004
H   -1.6150002    1.4431294    0.5264720
H   -1.6150038    2.3428843   -1.0459451
H   -1.6150049    3.2547604    0.5194728
$end

$rem
BASIS  =  6-31G*
GUI  =  2
JOB_TYPE  =  Optimization
METHOD  =  wB97XD
SCF_CONVERGENCE  =  8
$end

--------------------------------------------------------------

    9     -40.5007305418      2.53e-09  Convergence criterion met
 Total energy in the final basis set =      -40.5007305418
   10     -40.4995652757      7.74e-09  Convergence criterion met
 Total energy in the final basis set =      -40.4995652757
    8     -40.5005559751      1.05e-09  Convergence criterion met
 Total energy in the final basis set =      -40.5005559751
    8     -40.5014337549      2.03e-09  Convergence criterion met
 Total energy in the final basis set =      -40.5014337549
    7     -40.5014384427      1.90e-09  Convergence criterion met
 Total energy in the final basis set =      -40.5014384427
    6     -40.5014387293      6.14e-09  Convergence criterion met
 Total energy in the final basis set =      -40.5014387293
 Final energy is -40.501438729252
	**  OPTIMIZATION CONVERGED  **
 Total job time:  8.80s(wall), 8.80s(cpu)
        *  Thank you very much for using Q-Chem.  Have a nice day.  *
 Q-Chem 6.0, Q-Chem, Inc., Pleasanton, CA (2022)
 Q-Chem 6.0.0 for Intel X86 EM64T Linux

User input:
--------------------------------------------------------------

$molecule
read
$end

$rem
BASIS  =  6-31G*
GUI  =  2
JOB_TYPE  =  Frequency
METHOD  =  wB97XD
SCF_CONVERGENCE  =  8
$end

--------------------------------------------------------------

             Standard Nuclear Orientation (Angstroms)
    I     Atom           X                Y                Z
 ----------------------------------------------------------------
    1      C       0.0000263157     0.0000636224     0.0001713088
    2      H       0.8963032777    -0.2594769322     0.5683197648
    3      H      -0.8827814868    -0.1295273555     0.6305220104
    4      H      -0.0782655640    -0.6519089494    -0.8730811162
    5      H       0.0645858790     1.0405315026    -0.3267885116
 ----------------------------------------------------------------

    9     -40.5014009755      2.22e-09  Convergence criterion met
 Total energy in the final basis set =      -40.5014009755

                    Orbital Energies (a.u.)
 --------------------------------------------------------------

 Alpha MOs
 -- Occupied --
-10.2751  -0.7873  -0.4726  -0.4725  -0.4723

          Ground-State Mulliken Net Atomic Charges

     Atom                 Charge (a.u.)
  ----------------------------------------
      1 C                    -0.695379
      2 H                     0.173892
      3 H                     0.173891
      4 H                     0.173791
      5 H                     0.173806
  ----------------------------------------
  Sum of atomic charges =     0.000000

                    Cartesian Multipole Moments
 -----------------------------------------------------------------
    Charge (ESU x 10^10)
                 0.0000
    Dipole Moment (Debye)
         X      -0.0001      Y      -0.0003      Z      -0.0005
       Tot       0.0006
    Quadrupole Moments (Debye-Ang)
        XX      -8.2050     XY      -0.0001     YY      -8.2075
        XZ      -0.0000     YZ      -0.0003     ZZ      -8.2107

 Frequency:      1369.20                1374.03                1375.50
 Force Cnst:      1.3014                 1.3108                 1.3134
 Red. Mass:       1.1783                 1.1784                 1.1782
 IR Intens:       19.236                 19.197                 19.049
 Frequency:      1591.67                1596.78                3063.02
 Force Cnst:      1.5044                 1.5142                 5.5714
 Red. Mass:       1.0079                 1.0080                 1.0079
 IR Intens:        0.006                  0.015                  0.014
 Frequency:      3183.77                3186.76                3190.10
 Force Cnst:      6.5821                 6.5949                 6.6087
 Red. Mass:       1.1021                 1.1022                 1.1022
 IR Intens:       23.901                 23.896                 23.986

 STANDARD THERMODYNAMIC QUANTITIES AT   298.15 K  AND     1.00 ATM

   This Molecule has  0 Imaginary Frequencies
   Zero point vibrational energy:       28.493 kcal/mol

   Atom    1 Element C  Has Mass   12.00000
   Atom    2 Element H  Has Mass    1.00783
   Atom    3 Element H  Has Mass    1.00783
   Atom    4 Element H  Has Mass    1.00783
   Atom    5 Element H  Has Mass    1.00783
   Molecular Mass:    16.031320 amu
   Principal axes and moments of inertia in amu*Bohr^2:
                             1           2           3
    Eigenvalues --       11.44996    11.45414    11.46202
          X               1.00000    -0.00001    -0.00000
          Y               0.00001     1.00000    -0.00002
          Z               0.00000     0.00002     1.00000
   Rotational Symmetry Number is   1
   The Molecule is an Asymmetric Top
   Translational Enthalpy:        0.889 kcal/mol
   Rotational Enthalpy:           0.889 kcal/mol
   Vibrational Enthalpy:         28.512 kcal/mol
   gas constant (RT):             0.592 kcal/mol
   Translational Entropy:        34.261  cal/mol.K
   Rotational Entropy:           15.071  cal/mol.K
   Vibrational Entropy:           0.076  cal/mol.K

   Total Enthalpy:               30.882 kcal/mol
   Total Entropy:                49.409  cal/mol.K
 Total job time:  8.02s(wall), 8.02s(cpu)
        *  Thank you very much for using Q-Chem.  Have a nice day.  *
