 Q-Chem 6.0, Q-Chem, Inc., Pleasanton, CA (2022)
 Q-Chem 6.0.0 for Intel X86 EM64T Linux

User input:
--------------------------------------------------------------
$molecule
0 1
N    0.8880886    0.0744025    0.0647392
N    2.2880887    0.0744025    0.0647392
O    3.6413505    0.0744025    0.0647392
$end

$rem
BASIS  =  6-31G*
GUI  =  2
JOB_TYPE  =  Optimization
METHOD  =  wB97XD
SCF_CONVERGENCE  =  8
$end

--------------------------------------------------------------

   13    -184.4583686010      5.08e-09  Convergence criterion met
 Total energy in the final basis set =     -184.4583686010
   12    -184.5249006477      1.58e-09  Convergence criterion met
 Total energy in the final basis set =     -184.5249006477
   11    -184.5755254605      6.94e-09  Convergence criterion met
 Total energy in the final basis set =     -184.5755254605
   11    -184.5903328084      4.25e-09  Convergence criterion met
 Total energy in the final basis set =     -184.5903328084
   11    -184.5902613043      1.47e-09  Convergence criterion met
 Total energy in the final basis set =     -184.5902613043
   10    -184.5917287637      6.80e-09  Convergence criterion met
 Total energy in the final basis set =     -184.5917287637
    9    -184.5917494725      4.39e-09  Convergence criterion met
 Total energy in the final basis set =     -184.5917494725
    9    -184.5917505313      1.18e-09  Convergence criterion met
 Total energy in the final basis set =     -184.5917505313
    7    -184.5917505326      2.74e-09  Convergence criterion met
 Total energy in the final basis set =     -184.5917505326
 Final energy is -184.591750532644
	**  OPTIMIZATION CONVERGED  **
 Total job time:  18.13s(wall), 18.15s(cpu)
        *  Thank you very much for using Q-Chem.  Have a nice day.  *
 Q-Chem 6.0, Q-Chem, Inc., Pleasanton, CA (2022)
 Q-Chem 6.0.0 for Intel X86 EM64T Linux

User input:
--------------------------------------------------------------

$molecule
read
$end

$rem
BASIS  =  6-31G*
GUI  =  2
JOB_TYPE  =  Frequency
METHOD  =  wB97XD
SCF_CONVERGENCE  =  8
$end

--------------------------------------------------------------

             Standard Nuclear Orientation (Angstroms)
    I     Atom           X                Y                Z
 ----------------------------------------------------------------
    1      N       0.0000000000     0.0000000000    -1.2003260986
    2      N       0.0000000000     0.0000000000    -0.0724239062
    3      O       0.0000000000     0.0000000000     1.1136562542
 ----------------------------------------------------------------

   12    -184.5917505297      4.65e-09  Convergence criterion met
 Total energy in the final basis set =     -184.5917505297

                    Orbital Energies (a.u.)
 --------------------------------------------------------------

 Alpha MOs
 -- Occupied --
-19.3740 -14.6961 -14.5587  -1.3522  -1.1924  -0.6952  -0.6580  -0.6580
 -0.5685  -0.4239  -0.4239

          Ground-State Mulliken Net Atomic Charges

     Atom                 Charge (a.u.)
  ----------------------------------------
      1 N                    -0.125304
      2 N                     0.642502
      3 O                    -0.517198
  ----------------------------------------
  Sum of atomic charges =     0.000000

                    Cartesian Multipole Moments
 -----------------------------------------------------------------
    Charge (ESU x 10^10)
                -0.0000
    Dipole Moment (Debye)
         X       0.0000      Y      -0.0000      Z      -0.0790
       Tot       0.0790
    Quadrupole Moments (Debye-Ang)
        XX     -15.0123     XY       0.0000     YY     -15.0123
        XZ      -0.0000     YZ      -0.0000     ZZ     -18.9087

 Frequency:       615.46                 615.46                1379.77
 Force Cnst:      3.1812                 3.1812                16.9417
 Red. Mass:      14.2541                14.2541                15.1041
 IR Intens:       10.435                 10.435                 59.083
 Frequency:      2420.66
 Force Cnst:     48.6536
 Red. Mass:      14.0928
 IR Intens:      350.353

 STANDARD THERMODYNAMIC QUANTITIES AT   298.15 K  AND     1.00 ATM

   This Molecule has  0 Imaginary Frequencies
   Zero point vibrational energy:        7.193 kcal/mol

   Atom    1 Element N  Has Mass   14.00307
   Atom    2 Element N  Has Mass   14.00307
   Atom    3 Element O  Has Mass   15.99491
   Molecular Mass:    44.001050 amu
   Principal axes and moments of inertia in amu*Bohr^2:
                             1           2           3
    Eigenvalues --        0.00000   143.15042   143.15042
          X               0.00000     0.00000     1.00000
          Y               0.00000     1.00000     0.00000
          Z               1.00000     0.00000     0.00000
   Rotational Symmetry Number is   1
   The Molecule is a Symmetric Top
   Translational Enthalpy:        0.889 kcal/mol
   Rotational Enthalpy:           0.592 kcal/mol
   Vibrational Enthalpy:          7.388 kcal/mol
   gas constant (RT):             0.592 kcal/mol
   Translational Entropy:        37.271  cal/mol.K
   Rotational Entropy:           14.308  cal/mol.K
   Vibrational Entropy:           0.867  cal/mol.K

   Total Enthalpy:                9.462 kcal/mol
   Total Entropy:                52.446  cal/mol.K
 Total job time:  11.06s(wall), 11.07s(cpu)
        *  Thank you very much for using Q-Chem.  Have a nice day.  *
