 Q-Chem 5.2, Q-Chem, Inc., Pleasanton, CA (2019)
 Q-Chem 5.2.1 for Intel X86 EM64T Linux

User input:
--------------------------------------------------------------
$molecule
0 1
O   -0.0000000   -0.0184041    0.0000000
H   -0.0000000    0.5383516    0.7830365
H    0.0000000    0.5383516   -0.7830365
$end

$rem
BASIS  =  6-31G*
GUI  =  2
JOB_TYPE  =  Optimization
METHOD  =  HF
SCF_CONVERGENCE  =  8
$end

--------------------------------------------------------------

   11     -76.0098915461      4.21e-09  Convergence criterion met
 Total energy in the final basis set =      -76.0098915461
    9     -76.0107020989      2.44e-09  Convergence criterion met
 Total energy in the final basis set =      -76.0107020989
    8     -76.0107464365      4.75e-09  Convergence criterion met
 Total energy in the final basis set =      -76.0107464365
 Final energy is   -76.0107464365223
 **  OPTIMIZATION CONVERGED  **
 Total job time:  0.66s(wall), 0.65s(cpu)
        *  Thank you very much for using Q-Chem.  Have a nice day.  *
 Q-Chem 5.2, Q-Chem, Inc., Pleasanton, CA (2019)
 Q-Chem 5.2.1 for Intel X86 EM64T Linux

User input:
--------------------------------------------------------------

$molecule
read
$end

$rem
BASIS  =  6-31G*
GUI  =  2
JOB_TYPE  =  Frequency
METHOD  =  HF
SCF_CONVERGENCE  =  8
$end

--------------------------------------------------------------

             Standard Nuclear Orientation (Angstroms)
    I     Atom           X                Y                Z
 ----------------------------------------------------------------
    1      O       0.0000000000     0.0000000000     0.1146558849
    2      H      -0.7543256133    -0.0000000000    -0.4586235396
    3      H       0.7543256133     0.0000000000    -0.4586235396
 ----------------------------------------------------------------

   11     -76.0107464365      3.41e-09  Convergence criterion met
 Total energy in the final basis set =      -76.0107464365

             Orbital Energies (a.u.) and Symmetries
 --------------------------------------------------------------

 Alpha MOs, Restricted
 -- Occupied --
-20.558  -1.346  -0.714  -0.571  -0.498
  1 A1    2 A1    1 B1    3 A1    1 B2

 Beta MOs, Restricted
 -- Occupied --
-20.558  -1.346  -0.714  -0.571  -0.498
  1 A1    2 A1    1 B1    3 A1    1 B2

          Ground-State Mulliken Net Atomic Charges

     Atom                 Charge (a.u.)
  ----------------------------------------
      1 O                    -0.868814
      2 H                     0.434407
      3 H                     0.434407
  ----------------------------------------
  Sum of atomic charges =     0.000000

                    Cartesian Multipole Moments
 -----------------------------------------------------------------
    Charge (ESU x 10^10)
                 0.0000
    Dipole Moment (Debye)
         X       0.0000      Y       0.0000      Z      -2.1985
       Tot       2.1985
    Quadrupole Moments (Debye-Ang)
        XX      -4.1038     XY       0.0000     YY      -7.2060
        XZ       0.0000     YZ      -0.0000     ZZ      -6.0019

 Frequency:      1826.52                4068.55                4186.98
 Force Cnst:      2.1274                10.1966                11.1850
 Red. Mass:       1.0823                 1.0455                 1.0829
 IR Intens:      107.302                 18.194                 58.195

 STANDARD THERMODYNAMIC QUANTITIES AT   298.15 K  AND     1.00 ATM

   This Molecule has  0 Imaginary Frequencies
   Zero point vibrational energy:       14.413 kcal/mol

   Atom    1 Element O  Has Mass   15.99491
   Atom    2 Element H  Has Mass    1.00783
   Atom    3 Element H  Has Mass    1.00783
   Molecular Mass:    18.010570 amu
   Principal axes and moments of inertia in amu*Bohr^2:
                             1           2           3
    Eigenvalues --        2.10088     4.09574     6.19663
          X               1.00000     0.00000    -0.00000
          Y               0.00000     0.00000     1.00000
          Z               0.00000     1.00000     0.00000
   Rotational Symmetry Number is   2
   The Molecule is an Asymmetric Top
   Translational Enthalpy:        0.889 kcal/mol
   Rotational Enthalpy:           0.889 kcal/mol
   Vibrational Enthalpy:         14.414 kcal/mol
   gas constant (RT):             0.592 kcal/mol
   Translational Entropy:        34.608  cal/mol.K
   Rotational Entropy:           10.376  cal/mol.K
   Vibrational Entropy:           0.003  cal/mol.K

   Total Enthalpy:               16.784 kcal/mol
   Total Entropy:                44.987  cal/mol.K

 Total job time:  0.58s(wall), 0.58s(cpu)
        *  Thank you very much for using Q-Chem.  Have a nice day.  *
